<VTKFile type="UnstructuredGrid" version="0.1" byte_order="BigEndian">
	<UnstructuredGrid>
		<Piece NumberOfPoints="9" NumberOfCells="4">
			<Points>
				<DataArray type="Float32" NumberOfComponents="3" Format="ascii">
					0.000	 0.000	 0.000	
					0.100	 0.000	 0.000	
					0.100	 0.100	 0.000	
					0.000	 0.100	 0.000	
					0.050	 0.000	 0.000	
					0.100	 0.050	 0.000	
					0.050	 0.100	 0.000	
					0.000	 0.050	 0.000	
					0.050	 0.050	 0.000	
				</DataArray>
			</Points>
			<Cells>
				<DataArray type="Int32" Name="connectivity" Format="ascii">
					0	 4	 8	 7	
					7	 8	 6	 3	
					4	 1	 5	 8	
					8	 5	 2	 6	
				</DataArray>
				<DataArray type="Int32" Name="offsets" Format="ascii">
					4
					8
					12
					16
				</DataArray>
				<DataArray type="Int32" Name="types" Format="ascii">
					5
					5
					5
					5
				</DataArray>
			</Cells>
			<PointData Scalars="scalars">
				<DataArray type="Float32" Name="disp" NumberOfComponents="3" Format="ascii">
					0.0	0.0	0.000
					1.93781139185978e-05	4.238940971978357e-06	0.000
					1.9378113918511177e-05	-4.2389409718938e-06	0.000
					0.0	0.0	0.000
					8.223568341874472e-06	1.664235556781329e-06	0.000
					1.2012109707089566e-05	5.2444044929250005e-17	0.000
					8.22356834188625e-06	-1.6642355567629904e-06	0.000
					0.0	0.0	0.000
					6.835702325152101e-06	1.0910207877109016e-17	0.000
				</DataArray>
			</PointData>
		</Piece>
	</UnstructuredGrid>
</VTKFile>