<VTKFile type="UnstructuredGrid" version="0.1" byte_order="BigEndian">
	<UnstructuredGrid>
		<Piece NumberOfPoints="9" NumberOfCells="4">
			<Points>
				<DataArray type="Float32" NumberOfComponents="3" Format="ascii">
					0.000	 0.000	 0.000	
					0.100	 0.000	 0.000	
					0.100	 0.100	 0.000	
					0.000	 0.100	 0.000	
					0.050	 0.000	 0.000	
					0.100	 0.050	 0.000	
					0.050	 0.100	 0.000	
					0.000	 0.050	 0.000	
					0.050	 0.050	 0.000	
				</DataArray>
			</Points>
			<Cells>
				<DataArray type="Int32" Name="connectivity" Format="ascii">
					0	 4	 8	 7	
					7	 8	 6	 3	
					4	 1	 5	 8	
					8	 5	 2	 6	
				</DataArray>
				<DataArray type="Int32" Name="offsets" Format="ascii">
					4
					8
					12
					16
				</DataArray>
				<DataArray type="Int32" Name="types" Format="ascii">
					5
					5
					5
					5
				</DataArray>
			</Cells>
			<PointData Scalars="scalars">
				<DataArray type="Float32" Name="disp" NumberOfComponents="3" Format="ascii">
					0.0	0.0	0.000
					9.689056959298902e-06	2.119470485989178e-06	0.000
					9.68905695925559e-06	-2.1194704859469004e-06	0.000
					0.0	0.0	0.000
					4.111784170937235e-06	8.321177783906643e-07	0.000
					6.006054853544783e-06	2.622075191520412e-17	0.000
					4.111784170943126e-06	-8.321177783814953e-07	0.000
					0.0	0.0	0.000
					3.4178511625760506e-06	5.4546804220808806e-18	0.000
				</DataArray>
			</PointData>
		</Piece>
	</UnstructuredGrid>
</VTKFile>