<VTKFile type="UnstructuredGrid" version="0.1" byte_order="BigEndian">
	<UnstructuredGrid>
		<Piece NumberOfPoints="9" NumberOfCells="4">
			<Points>
				<DataArray type="Float32" NumberOfComponents="3" Format="ascii">
					0.000	 0.000	 0.000	
					0.100	 0.000	 0.000	
					0.100	 0.100	 0.000	
					0.000	 0.100	 0.000	
					0.050	 0.000	 0.000	
					0.100	 0.050	 0.000	
					0.050	 0.100	 0.000	
					0.000	 0.050	 0.000	
					0.050	 0.050	 0.000	
				</DataArray>
			</Points>
			<Cells>
				<DataArray type="Int32" Name="connectivity" Format="ascii">
					0	 4	 8	 7	
					7	 8	 6	 3	
					4	 1	 5	 8	
					8	 5	 2	 6	
				</DataArray>
				<DataArray type="Int32" Name="offsets" Format="ascii">
					4
					8
					12
					16
				</DataArray>
				<DataArray type="Int32" Name="types" Format="ascii">
					5
					5
					5
					5
				</DataArray>
			</Cells>
			<PointData Scalars="scalars">
				<DataArray type="Float32" Name="disp" NumberOfComponents="3" Format="ascii">
					0.0	0.0	0.000
					7.751245567439122e-05	1.695576388791344e-05	0.000
					7.75124556740447e-05	-1.69557638875752e-05	0.000
					0.0	0.0	0.000
					3.289427336749788e-05	6.656942227125316e-06	0.000
					4.8048438828358266e-05	2.0977025048636924e-16	0.000
					3.2894273367545005e-05	-6.6569422270519635e-06	0.000
					0.0	0.0	0.000
					2.7342809300608405e-05	4.3640407991962435e-17	0.000
				</DataArray>
			</PointData>
		</Piece>
	</UnstructuredGrid>
</VTKFile>